********************************************************************************
*                       GENERAL UTILITY LATTICE PROGRAM                        *
*                                 Julian Gale                                  *
*                       Curtin Institute for Computation                       *
*                    School of Molecular and Life Sciences                     *
*                    Curtin University, Western Australia                      *
********************************************************************************
* Version = 6.4.0 * Last modified =  22nd December 2025                        *
********************************************************************************
*  optimise     - perform optimisation run                                     *
*  conp         - constant pressure calculation                                *
*  qok          - running with non charge neutral cell is OK                   *
*  c6           - use real and reciprocal space sum for C6 terms               *
*  gfnff        - use the GFNFF of Spicher and Grimme                          *
*  gwolf        - apply a Wolf sum to the topological charges in GFNFF         *
*  property     - calculate properties for final geometry                      *
*  nomodcoord   - do not mod input coordinates                                 *
********************************************************************************
* ASE calculation                                                              *
********************************************************************************


  Job Started  at 14:03.26 11th February   2026                               

  Number of CPUs =     1

  Host name      = fedora                                  


  Total number of configurations input =      1

********************************************************************************
*  Input for Configuration =   1                                               *
********************************************************************************

  Formula = C14N8O4H16

  Number of irreducible atoms/shells =      42


  Total number atoms/shells =      42

  Dimensionality = 3               :  Bulk   



  Cartesian lattice vectors (Angstroms) :

        3.874400    0.000000    0.000000
        0.000000   12.889800    0.000000
       -1.264834    0.000000    8.017544

  Cell parameters (Angstroms/Degrees):

  a =       3.8744    alpha =  90.0000
  b =      12.8898    beta  =  98.9650
  c =       8.1167    gamma =  90.0000

  Initial cell volume =         400.398085 Angs**3

  Temperature of configuration =   0.00     K 

  Pressure of configuration =         0.000 GPa 

  Fractional coordinates of asymmetric unit :

--------------------------------------------------------------------------------
   No.  Atomic       x           y          z         Charge      Occupancy
        Label      (Frac)      (Frac)     (Frac)        (e)         (Frac)  
--------------------------------------------------------------------------------
      1 C     c    0.508200    0.779100    0.667100     0.00000    1.000000    
      2 C     c    0.008200 *  0.220900 *  0.167100 *   0.00000    1.000000    
      3 C     c    0.342500 *  0.847000 *  0.924300 *   0.00000    1.000000    
      4 C     c    0.842500 *  0.153000 *  0.424300 *   0.00000    1.000000    
      5 N     c    0.407600 *  0.683300 *  0.726300 *   0.00000    1.000000    
      6 N     c    0.907600 *  0.316700 *  0.226300 *   0.00000    1.000000    
      7 C     c    0.288000 *  0.665400 *  0.877500 *   0.00000    1.000000    
      8 C     c    0.788000 *  0.334600 *  0.377500 *   0.00000    1.000000    
      9 N     c    0.255700 *  0.751000 *  0.976800 *   0.00000    1.000000    
     10 N     c    0.755700 *  0.249000 *  0.476800 *   0.00000    1.000000    
     11 O     c    0.214500 *  0.578600 *  0.917500 *   0.00000    1.000000    
     12 O     c    0.714500 *  0.421400 *  0.417500 *   0.00000    1.000000    
     13 O     c    0.609900 *  0.787200 *  0.531100 *   0.00000    1.000000    
     14 O     c    0.109900 *  0.212800 *  0.031100 *   0.00000    1.000000    
     15 N     c    0.326000 *  0.937700 *  0.007500 *   0.00000    1.000000    
     16 N     c    0.826000 *  0.062300 *  0.507500 *   0.00000    1.000000    
     17 C     c    0.148000 *  0.736100 *  0.140700 *   0.00000    1.000000    
     18 C     c    0.648000 *  0.263900 *  0.640700 *   0.00000    1.000000    
     19 H     c    0.348600 *  0.742500 *  0.226200 *   0.00000    1.000000    
     20 H     c    0.848600 *  0.257500 *  0.726200 *   0.00000    1.000000    
     21 H     c    0.048000 *  0.668300 *  0.145900 *   0.00000    1.000000    
     22 H     c    0.548000 *  0.331700 *  0.645900 *   0.00000    1.000000    
     23 H     c    0.978700 *  0.787700 *  0.157200 *   0.00000    1.000000    
     24 H     c    0.478700 *  0.212300 *  0.657200 *   0.00000    1.000000    
     25 C     c    0.440900 *  0.006900 *  0.907400 *   0.00000    1.000000    
     26 C     c    0.940900 *  0.993100 *  0.407400 *   0.00000    1.000000    
     27 H     c    0.458500 *  0.077400 *  0.931800 *   0.00000    1.000000    
     28 H     c    0.958500 *  0.922600 *  0.431800 *   0.00000    1.000000    
     29 C     c    0.433000 *  0.590900 *  0.619800 *   0.00000    1.000000    
     30 C     c    0.933000 *  0.409100 *  0.119800 *   0.00000    1.000000    
     31 H     c    0.206600 *  0.559900 *  0.591100 *   0.00000    1.000000    
     32 H     c    0.706600 *  0.440100 *  0.091100 *   0.00000    1.000000    
     33 H     c    0.591000 *  0.541500 *  0.679600 *   0.00000    1.000000    
     34 H     c    0.091000 *  0.458500 *  0.179600 *   0.00000    1.000000    
     35 H     c    0.518900 *  0.611400 *  0.519900 *   0.00000    1.000000    
     36 H     c    0.018900 *  0.388600 *  0.019900 *   0.00000    1.000000    
     37 C     c    0.465300 *  0.860800 *  0.778900 *   0.00000    1.000000    
     38 C     c    0.965300 *  0.139200 *  0.278900 *   0.00000    1.000000    
     39 N     c    0.527900 *  0.966300 *  0.769700 *   0.00000    1.000000    
     40 N     c    0.027900 *  0.033700 *  0.269700 *   0.00000    1.000000    
     41 H     c    0.607000 *  0.998700 *  0.690900 *   0.00000    1.000000    
     42 H     c    0.107000 *  0.001300 *  0.190900 *   0.00000    1.000000    
--------------------------------------------------------------------------------



********************************************************************************
*  General input information                                                   *
********************************************************************************

  Species output for all configurations : 

--------------------------------------------------------------------------------
  Species    Type    Atomic    Atomic    Charge       Radii (Angs)     Library
                     Number     Mass       (e)     Cova   Ionic  VDW   Symbol
--------------------------------------------------------------------------------
    C        Core        6      12.01   0.000000   0.770  0.000  1.530          
    N        Core        7      14.01   0.000000   0.750  0.000  1.480          
    O        Core        8      16.00   0.000000   0.730  0.000  1.360          
    H        Core        1       1.01   0.000000   0.370  0.000  1.080          
--------------------------------------------------------------------------------


  Lattice summation method               =    Ewald          (3-D)
                                         =    Parry          (2-D)
                                         =    Saunders et al (1-D)
  Accuracy factor for lattice sums       =   12.000


  Analytic derivatives to be used

  Time limit = Infinity

  Maximum range for interatomic potentials =    100000.000000 Angstroms

  C6 terms to be calculated in real and reciprocal space 

  pGFNFF forcefield to be used

  pGFNFF parameter charges will use new PBC-consistent topology 
  pGFNFF maximum number of shells for topology - loop 0   =    2
  pGFNFF maximum number of shells for topology - loop > 0 =    4
  pGFNFF fragments to be set based on original neighbour list
  pGFNFF topological large distance = 10**12 
  pGFNFF topological distances scaled by =  1.17500
  pGFNFF topological distance  cutoff    = 12.00000 a.u.
  pGFNFF topological charges to be computed with a Wolf sum with eta =  0.20000
  pGFNFF minimum allowed charge in topology set =      -2.0000
  pGFNFF dispersion-coordination number tolerance =    10.0000
  pGFNFF high coordination numbers will NOT be trapped
  pGFNFF pi biradicals modified based on charge of atoms
  pGFNFF accuracy       =     0.100000
  pGFNFF accuracy_disp  =     0.100000
  pGFNFF accuracy_rep   =     0.100000
  pGFNFF accuracy_cn    =     0.100000
  pGFNFF accuracy_hb1   =     0.100000
  pGFNFF accuracy_hb2   =     0.100000
  pGFNFF taper          =     0.950000
  pGFNFF scale coulomb  =     0.733200
  pGFNFF scale repulsn  =     1.745500
  pGFNFF scale HB       =     0.885600
  pGFNFF scale C6       =     0.700200
  pGFNFF scale C8       =     0.991200
  pGFNFF temperature 1  =  4000.000000 K
  pGFNFF temperature 2  =   300.000000 K
  pGFNFF kspace         =     0.040000 1/Ang
  pGFNFF ATM dispersion =   damped 

********************************************************************************
*  Output for configuration   1                                                *
********************************************************************************


  Components of energy : 

--------------------------------------------------------------------------------
  Interatomic potentials     =           0.00000000 eV    
  GFNFF force field          =        -193.08431582 eV    
  Monopole - monopole (real) =          -7.58136559 eV    
  Monopole - monopole (recip)=          -4.74179356 eV    
  Monopole - monopole (total)=         -12.32315915 eV    
  Dispersion (real+recip)    =           0.00000000 eV    
  GFNFF Coulomb correction   =           0.47307793 eV    
--------------------------------------------------------------------------------
  Total lattice energy       =        -204.93439704 eV    
--------------------------------------------------------------------------------
  Total lattice energy       =          -19773.0366 kJ/(mole unit cells)
--------------------------------------------------------------------------------


  Number of variables =      129

  Maximum number of calculations  =            20
  Maximum Hessian update interval =            10
  Maximum step size               =   1.000000000
  Maximum parameter tolerance     =   0.000010000
  Maximum function  tolerance     =   0.000010000
  Maximum gradient  tolerance     =   0.001000000
  Maximum gradient  component     =   0.010000000

  Symmetry not applied to optimisation

  Cell parameters to be optimised using strains

  Newton-Raphson optimiser to be used

  BFGS hessian update to be used

  Hessian eigenvalue shifts to be used to ensure all values are positive

  Lower half triangular hessian to be used

  Start of bulk optimisation :

  Cycle:      0 Energy:      -204.934397  Gnorm:      4.523173  CPU:    0.195
  ** Hessian lowest eigenvalue is negative =  -2.123E+03
  ** Hessian calculated **
  Cycle:      1 Energy:      -217.431062  Gnorm:      1.023261  CPU:    0.366
  ** Hessian lowest eigenvalue is negative =  -7.286E+01
  ** Hessian calculated **
  Cycle:      2 Energy:      -219.219450  Gnorm:      0.702992  CPU:    0.651
  Cycle:      3 Energy:      -220.096221  Gnorm:      0.146405  CPU:    0.784
  Cycle:      4 Energy:      -220.148179  Gnorm:      0.091435  CPU:    0.919
  Cycle:      5 Energy:      -220.209515  Gnorm:      0.107472  CPU:    1.090
  Cycle:      6 Energy:      -220.247616  Gnorm:      0.128057  CPU:    1.231
  Cycle:      7 Energy:      -220.303035  Gnorm:      0.059205  CPU:    1.410
  Cycle:      8 Energy:      -220.327070  Gnorm:      0.065362  CPU:    1.557
  Cycle:      9 Energy:      -220.337114  Gnorm:      0.057672  CPU:    1.702
  Cycle:     10 Energy:      -220.356819  Gnorm:      0.037470  CPU:    1.882
  Cycle:     11 Energy:      -220.365796  Gnorm:      0.025701  CPU:    2.028
  ** Hessian calculated **
  Cycle:     12 Energy:      -220.389278  Gnorm:      0.022536  CPU:    2.448
  Cycle:     13 Energy:      -220.408591  Gnorm:      0.027087  CPU:    2.628
  Cycle:     14 Energy:      -220.410718  Gnorm:      0.025476  CPU:    2.807
  Cycle:     15 Energy:      -220.411983  Gnorm:      0.014760  CPU:    2.952
  Cycle:     16 Energy:      -220.412684  Gnorm:      0.008368  CPU:    3.097
  Cycle:     17 Energy:      -220.413118  Gnorm:      0.013709  CPU:    3.277
  Cycle:     18 Energy:      -220.413330  Gnorm:      0.004032  CPU:    3.456
  Cycle:     19 Energy:      -220.413387  Gnorm:      0.002425  CPU:    3.602
  Cycle:     20 Energy:      -220.413400  Gnorm:      0.001741  CPU:    3.747


  **** Maximum number of function calls has been reached ****


  Final energy =    -220.41340046 eV      
  Final Gnorm  =       0.00174122

  Components of energy : 

--------------------------------------------------------------------------------
  Interatomic potentials     =           0.00000000 eV    
  GFNFF force field          =        -211.16957080 eV    
  Monopole - monopole (real) =          -5.37870257 eV    
  Monopole - monopole (recip)=          -4.02348131 eV    
  Monopole - monopole (total)=          -9.40218388 eV    
  Dispersion (real+recip)    =           0.00000000 eV    
  GFNFF Coulomb correction   =           0.15835422 eV    
--------------------------------------------------------------------------------
  Total lattice energy       =        -220.41340046 eV    
--------------------------------------------------------------------------------
  Total lattice energy       =          -21266.5238 kJ/(mole unit cells)
--------------------------------------------------------------------------------

  Final fractional coordinates of atoms :

--------------------------------------------------------------------------------
   No.  Atomic        x           y          z          Radius
        Label       (Frac)      (Frac)     (Frac)       (Angs) 
--------------------------------------------------------------------------------
     1  C     c     0.508200    0.779100    0.667100    0.000000
     2  C     c     0.007961    0.236813    0.167023    0.000000
     3  C     c     0.331415    0.852544    0.919343    0.000000
     4  C     c     0.831272    0.163368    0.419290    0.000000
     5  N     c     0.463362    0.679488    0.734677    0.000000
     6  N     c     0.962994    0.336429    0.234565    0.000000
     7  C     c     0.365509    0.663778    0.891323    0.000000
     8  C     c     0.865043    0.352141    0.391183    0.000000
     9  N     c     0.296012    0.751186    0.983035    0.000000
    10  N     c     0.795686    0.264732    0.482935    0.000000
    11  O     c     0.342635    0.574107    0.946750    0.000000
    12  O     c     0.841939    0.441818    0.446546    0.000000
    13  O     c     0.599596    0.790404    0.531189    0.000000
    14  O     c     0.099331    0.225504    0.031106    0.000000
    15  N     c     0.282043    0.947424   -0.015095    0.000000
    16  N     c     0.782039    0.068485    0.484890    0.000000
    17  C     c     0.198795    0.740261    0.145492    0.000000
    18  C     c     0.698484    0.275661    0.645400    0.000000
    19  H     c     0.441974    0.750345    0.262720    0.000000
    20  H     c     0.941563    0.265537    0.762628    0.000000
    21  H     c     0.080902    0.663102    0.150087    0.000000
    22  H     c     0.581127    0.352834    0.650141    0.000000
    23  H     c     0.999670    0.799925    0.149308    0.000000
    24  H     c     0.498909    0.216020    0.649067    0.000000
    25  C     c     0.361019    0.020190    0.884645    0.000000
    26  C     c     0.861195    0.995719    0.384683    0.000000
    27  H     c     0.342194    0.103272    0.907101    0.000000
    28  H     c     0.842469    0.912633    0.407170    0.000000
    29  C     c     0.516033    0.587382    0.637754    0.000000
    30  C     c     1.015816    0.428537    0.137683    0.000000
    31  H     c     0.256020    0.546358    0.582663    0.000000
    32  H     c     0.755934    0.469521    0.082709    0.000000
    33  H     c     0.714222    0.535403    0.729476    0.000000
    34  H     c     0.214288    0.480555    0.229415    0.000000
    35  H     c     0.618317    0.609047    0.528401    0.000000
    36  H     c     0.117847    0.406880    0.028250    0.000000
    37  C     c     0.440138    0.866758    0.768605    0.000000
    38  C     c     0.940053    0.149153    0.268569    0.000000
    39  N     c     0.460604    0.973905    0.751042    0.000000
    40  N     c    -0.039247    0.042006    0.251074    0.000000
    41  H     c     0.565595    1.008847    0.658732    0.000000
    42  H     c     0.065741    0.007077    0.158768    0.000000
--------------------------------------------------------------------------------

  Final Cartesian lattice vectors (Angstroms) :

        3.953448   -0.001683   -0.327913
       -0.003466   13.095473   -0.001597
       -1.968000   -0.001482    7.815633


  Final cell parameters and derivatives :

--------------------------------------------------------------------------------
       a            3.967024 Angstrom     dE/de1(xx)    -0.006664 eV/strain
       b           13.095474 Angstrom     dE/de2(yy)    -0.000548 eV/strain
       c            8.059599 Angstrom     dE/de3(zz)    -0.011740 eV/strain
       alpha       90.013612 Degrees      dE/de4(yz)    -0.000511 eV/strain
       beta       108.874891 Degrees      dE/de5(xz)    -0.002392 eV/strain
       gamma       90.038841 Degrees      dE/de6(xy)    -0.001475 eV/strain
--------------------------------------------------------------------------------

  Primitive cell volume =           396.182061 Angs**3

  Density of cell =      1.510504 g/cm**3

  Non-primitive cell volume =           396.182061 Angs**3


  Final internal derivatives :

--------------------------------------------------------------------------------
   No.  Atomic          a             b             c           Radius
        Label          (eV)          (eV)          (eV)        (eV/Angs)
--------------------------------------------------------------------------------
      1 C     c       0.000000      0.000000      0.000000      0.000000
      2 C     c       0.000525     -0.034670      0.007635      0.000000
      3 C     c      -0.002215      0.010247      0.000423      0.000000
      4 C     c       0.000403     -0.001617     -0.000191      0.000000
      5 N     c      -0.000090     -0.019973     -0.002064      0.000000
      6 N     c      -0.003738      0.020337      0.008766      0.000000
      7 C     c       0.007562      0.089560     -0.023302      0.000000
      8 C     c       0.006814     -0.070250     -0.014804      0.000000
      9 N     c       0.002106      0.032195      0.001359      0.000000
     10 N     c       0.000815     -0.012302      0.000600      0.000000
     11 O     c      -0.008435     -0.117393      0.028669      0.000000
     12 O     c      -0.008056      0.085392      0.020137      0.000000
     13 O     c       0.002073      0.008805     -0.004156      0.000000
     14 O     c       0.001147     -0.010830     -0.001293      0.000000
     15 N     c       0.003708     -0.009068     -0.016750      0.000000
     16 N     c      -0.000208      0.019258     -0.008635      0.000000
     17 C     c      -0.003179      0.020204      0.012181      0.000000
     18 C     c      -0.002062     -0.004026      0.009997      0.000000
     19 H     c      -0.004396     -0.003371     -0.012351      0.000000
     20 H     c      -0.002222      0.002330     -0.007512      0.000000
     21 H     c       0.001376      0.012944     -0.000150      0.000000
     22 H     c       0.001034     -0.010918     -0.000872      0.000000
     23 H     c       0.008729     -0.029822     -0.006093      0.000000
     24 H     c       0.004399      0.017537     -0.004646      0.000000
     25 C     c       0.000588     -0.030394     -0.003988      0.000000
     26 C     c       0.005590      0.026543     -0.017501      0.000000
     27 H     c      -0.000226     -0.003615     -0.001413      0.000000
     28 H     c      -0.001274     -0.020069     -0.000017      0.000000
     29 C     c      -0.008266     -0.011555      0.011614      0.000000
     30 C     c      -0.005674      0.020930     -0.003018      0.000000
     31 H     c       0.007364      0.012630      0.002904      0.000000
     32 H     c       0.006930     -0.006374     -0.000336      0.000000
     33 H     c      -0.003276      0.011284     -0.003254      0.000000
     34 H     c      -0.001349     -0.006451      0.000478      0.000000
     35 H     c      -0.000070      0.007002     -0.001313      0.000000
     36 H     c      -0.002210     -0.000823      0.003399      0.000000
     37 C     c       0.002303      0.006518     -0.006585      0.000000
     38 C     c       0.001212      0.004666     -0.004723      0.000000
     39 N     c      -0.009341     -0.036830      0.023127      0.000000
     40 N     c      -0.006483      0.004812      0.018779      0.000000
     41 H     c       0.004385      0.014679     -0.009124      0.000000
     42 H     c       0.004098     -0.014824     -0.005632      0.000000
--------------------------------------------------------------------------------
  Maximum abs         0.009341      0.117393      0.028669      0.000000
--------------------------------------------------------------------------------


  Born effective charge tensors : 

-------------------------------------------------------------------------------
  Atom             x           y             z
-------------------------------------------------------------------------------
    1 C     x       0.2543      0.0000      0.0000
            y       0.0000      0.2543      0.0000
            z       0.0000      0.0000      0.2543
-------------------------------------------------------------------------------
    2 C     x       0.2543      0.0000      0.0000
            y       0.0000      0.2543      0.0000
            z       0.0000      0.0000      0.2543
-------------------------------------------------------------------------------
    3 C     x       0.1419      0.0000      0.0000
            y       0.0000      0.1419      0.0000
            z       0.0000      0.0000      0.1419
-------------------------------------------------------------------------------
    4 C     x       0.1419      0.0000      0.0000
            y       0.0000      0.1419      0.0000
            z       0.0000      0.0000      0.1419
-------------------------------------------------------------------------------
    5 N     x      -0.1832      0.0000      0.0000
            y       0.0000     -0.1832      0.0000
            z       0.0000      0.0000     -0.1832
-------------------------------------------------------------------------------
    6 N     x      -0.1831      0.0000      0.0000
            y       0.0000     -0.1831      0.0000
            z       0.0000      0.0000     -0.1831
-------------------------------------------------------------------------------
    7 C     x       0.3002      0.0000      0.0000
            y       0.0000      0.3002      0.0000
            z       0.0000      0.0000      0.3002
-------------------------------------------------------------------------------
    8 C     x       0.3002      0.0000      0.0000
            y       0.0000      0.3002      0.0000
            z       0.0000      0.0000      0.3002
-------------------------------------------------------------------------------
    9 N     x      -0.1951      0.0000      0.0000
            y       0.0000     -0.1951      0.0000
            z       0.0000      0.0000     -0.1951
-------------------------------------------------------------------------------
   10 N     x      -0.1951      0.0000      0.0000
            y       0.0000     -0.1951      0.0000
            z       0.0000      0.0000     -0.1951
-------------------------------------------------------------------------------
   11 O     x      -0.4965      0.0000      0.0000
            y       0.0000     -0.4965      0.0000
            z       0.0000      0.0000     -0.4965
-------------------------------------------------------------------------------
   12 O     x      -0.4965      0.0000      0.0000
            y       0.0000     -0.4965      0.0000
            z       0.0000      0.0000     -0.4965
-------------------------------------------------------------------------------
   13 O     x      -0.4820      0.0000      0.0000
            y       0.0000     -0.4820      0.0000
            z       0.0000      0.0000     -0.4820
-------------------------------------------------------------------------------
   14 O     x      -0.4820      0.0000      0.0000
            y       0.0000     -0.4820      0.0000
            z       0.0000      0.0000     -0.4820
-------------------------------------------------------------------------------
   15 N     x      -0.2773      0.0000      0.0000
            y       0.0000     -0.2773      0.0000
            z       0.0000      0.0000     -0.2773
-------------------------------------------------------------------------------
   16 N     x      -0.2773      0.0000      0.0000
            y       0.0000     -0.2773      0.0000
            z       0.0000      0.0000     -0.2773
-------------------------------------------------------------------------------
   17 C     x      -0.0344      0.0000      0.0000
            y       0.0000     -0.0344      0.0000
            z       0.0000      0.0000     -0.0344
-------------------------------------------------------------------------------
   18 C     x      -0.0344      0.0000      0.0000
            y       0.0000     -0.0344      0.0000
            z       0.0000      0.0000     -0.0344
-------------------------------------------------------------------------------
   19 H     x       0.1271      0.0000      0.0000
            y       0.0000      0.1271      0.0000
            z       0.0000      0.0000      0.1271
-------------------------------------------------------------------------------
   20 H     x       0.1270      0.0000      0.0000
            y       0.0000      0.1270      0.0000
            z       0.0000      0.0000      0.1270
-------------------------------------------------------------------------------
   21 H     x       0.1097      0.0000      0.0000
            y       0.0000      0.1097      0.0000
            z       0.0000      0.0000      0.1097
-------------------------------------------------------------------------------
   22 H     x       0.1097      0.0000      0.0000
            y       0.0000      0.1097      0.0000
            z       0.0000      0.0000      0.1097
-------------------------------------------------------------------------------
   23 H     x       0.0967      0.0000      0.0000
            y       0.0000      0.0967      0.0000
            z       0.0000      0.0000      0.0967
-------------------------------------------------------------------------------
   24 H     x       0.0967      0.0000      0.0000
            y       0.0000      0.0967      0.0000
            z       0.0000      0.0000      0.0967
-------------------------------------------------------------------------------
   25 C     x       0.1203      0.0000      0.0000
            y       0.0000      0.1203      0.0000
            z       0.0000      0.0000      0.1203
-------------------------------------------------------------------------------
   26 C     x       0.1202      0.0000      0.0000
            y       0.0000      0.1202      0.0000
            z       0.0000      0.0000      0.1202
-------------------------------------------------------------------------------
   27 H     x       0.1190      0.0000      0.0000
            y       0.0000      0.1190      0.0000
            z       0.0000      0.0000      0.1190
-------------------------------------------------------------------------------
   28 H     x       0.1190      0.0000      0.0000
            y       0.0000      0.1190      0.0000
            z       0.0000      0.0000      0.1190
-------------------------------------------------------------------------------
   29 C     x      -0.0337      0.0000      0.0000
            y       0.0000     -0.0337      0.0000
            z       0.0000      0.0000     -0.0337
-------------------------------------------------------------------------------
   30 C     x      -0.0337      0.0000      0.0000
            y       0.0000     -0.0337      0.0000
            z       0.0000      0.0000     -0.0337
-------------------------------------------------------------------------------
   31 H     x       0.1383      0.0000      0.0000
            y       0.0000      0.1383      0.0000
            z       0.0000      0.0000      0.1383
-------------------------------------------------------------------------------
   32 H     x       0.1383      0.0000      0.0000
            y       0.0000      0.1383      0.0000
            z       0.0000      0.0000      0.1383
-------------------------------------------------------------------------------
   33 H     x       0.1287      0.0000      0.0000
            y       0.0000      0.1287      0.0000
            z       0.0000      0.0000      0.1287
-------------------------------------------------------------------------------
   34 H     x       0.1288      0.0000      0.0000
            y       0.0000      0.1288      0.0000
            z       0.0000      0.0000      0.1288
-------------------------------------------------------------------------------
   35 H     x       0.1317      0.0000      0.0000
            y       0.0000      0.1317      0.0000
            z       0.0000      0.0000      0.1317
-------------------------------------------------------------------------------
   36 H     x       0.1317      0.0000      0.0000
            y       0.0000      0.1317      0.0000
            z       0.0000      0.0000      0.1317
-------------------------------------------------------------------------------
   37 C     x       0.0656      0.0000      0.0000
            y       0.0000      0.0656      0.0000
            z       0.0000      0.0000      0.0656
-------------------------------------------------------------------------------
   38 C     x       0.0656      0.0000      0.0000
            y       0.0000      0.0656      0.0000
            z       0.0000      0.0000      0.0656
-------------------------------------------------------------------------------
   39 N     x      -0.2411      0.0000      0.0000
            y       0.0000     -0.2411      0.0000
            z       0.0000      0.0000     -0.2411
-------------------------------------------------------------------------------
   40 N     x      -0.2411      0.0000      0.0000
            y       0.0000     -0.2411      0.0000
            z       0.0000      0.0000     -0.2411
-------------------------------------------------------------------------------
   41 H     x       0.2097      0.0000      0.0000
            y       0.0000      0.2097      0.0000
            z       0.0000      0.0000      0.2097
-------------------------------------------------------------------------------
   42 H     x       0.2097      0.0000      0.0000
            y       0.0000      0.2097      0.0000
            z       0.0000      0.0000      0.2097
-------------------------------------------------------------------------------




  Elastic Constant Matrix: (Units=GPa)

-------------------------------------------------------------------------------
  Indices      1         2         3         4         5         6    
-------------------------------------------------------------------------------
       1     13.5837    9.0981   12.5391    0.0044   -2.5295   -0.0038
       2      9.0981   33.9212   15.4215   -0.0202   -7.5025   -0.0063
       3     12.5391   15.4215   29.4132   -0.0115   -8.1068    0.0058
       4      0.0044   -0.0202   -0.0115   12.4724    0.0051   -6.6527
       5     -2.5295   -7.5025   -8.1068    0.0051    7.3350    0.0081
       6     -0.0038   -0.0063    0.0058   -6.6527    0.0081    4.9478
-------------------------------------------------------------------------------


  Elastic Compliance Matrix: (Units=1/GPa)

-------------------------------------------------------------------------------
  Indices      1         2         3         4         5         6    
-------------------------------------------------------------------------------
       1    0.130521 -0.017107 -0.056214 -0.000017 -0.034618  0.000177
       2   -0.017107  0.044326 -0.007302  0.000208  0.031369  0.000280
       3   -0.056214 -0.007302  0.078217 -0.000257  0.059594 -0.000586
       4   -0.000017  0.000208 -0.000257  0.283512 -0.000694  0.381208
       5   -0.034618  0.031369  0.059594 -0.000694  0.222346 -0.001352
       6    0.000177  0.000280 -0.000586  0.381208 -0.001352  0.714681
-------------------------------------------------------------------------------

  Mechanical properties :

-------------------------------------------------------------------------------
  Convention :                    Reuss         Voigt         Hill
-------------------------------------------------------------------------------
  Bulk  Modulus (GPa)     =      10.89118      16.78171      13.83645
  Shear Modulus (GPa)     =       3.00218       7.60833       5.30526
-------------------------------------------------------------------------------
  Velocity S-wave (km/s)  =       1.40980       2.24431       1.87410
  Velocity P-wave (km/s)  =       3.14012       4.22208       3.72064
-------------------------------------------------------------------------------
  Compressibility (1/GPa) =    0.09181739
-------------------------------------------------------------------------------
  Stress axis :                     x             y             z
-------------------------------------------------------------------------------
  Youngs Moduli (GPa)     =       7.66160      22.56003      12.78502
-------------------------------------------------------------------------------
  Poissons Ratio (x)      =                     0.38594       0.71870
  Poissons Ratio (y)      =       0.13107                     0.09335
  Poissons Ratio (z)      =       0.43069       0.16472
-------------------------------------------------------------------------------


  Piezoelectric Strain Matrix: (Units=C/m**2)

-------------------------------------------------------------------------------
  Indices      1         2         3         4         5         6    
-------------------------------------------------------------------------------
       x    -0.23764  -1.05387   0.85402  -0.00086  -0.66190   0.00043
       y    -0.00030  -0.00111   0.00039  -0.21321  -0.00044   0.14516
       z    -0.35361  -0.57300  -0.08470  -0.00050   0.00064   0.00033
-------------------------------------------------------------------------------


  Piezoelectric Stress Matrix: (Units=10**-11 C/N)

-------------------------------------------------------------------------------
  Indices      1         2         3         4         5         6    
-------------------------------------------------------------------------------
       x    -3.80819  -6.96477   4.84063  -0.00527 -12.11096   0.00402
       y     0.00030  -0.00645  -0.00012  -0.51123  -0.01475   2.24648
       z    -3.16120  -1.87111   1.74749  -0.01099  -1.06385  -0.01331
-------------------------------------------------------------------------------


  Static dielectric constant tensor : 

-------------------------------------------------------------------------------
              x         y         z
-------------------------------------------------------------------------------
       x     1.54480   0.00024   0.25101
       y     0.00024   1.12075   0.00013
       z     0.25101   0.00013   1.24272
--------------------------------------------------------------------------------

  Static refractive indices : 

-------------------------------------------------------------------------------
    1 =    1.04920      2 =    1.05865      3 =    1.29873
-------------------------------------------------------------------------------


  Time to end of optimisation =       4.0800 seconds



  Final charges from pGFNFF :

--------------------------------------------------------------------------------
    Atom no.            Atomic No.             Charge
--------------------------------------------------------------------------------
         1                   6                 0.2542662
         2                   6                 0.2542531
         3                   6                 0.1419214
         4                   6                 0.1418960
         5                   7                -0.1831512
         6                   7                -0.1830579
         7                   6                 0.3001887
         8                   6                 0.3002257
         9                   7                -0.1951030
        10                   7                -0.1951081
        11                   8                -0.4965063
        12                   8                -0.4965012
        13                   8                -0.4819813
        14                   8                -0.4819579
        15                   7                -0.2772557
        16                   7                -0.2772711
        17                   6                -0.0344385
        18                   6                -0.0344375
        19                   1                 0.1270565
        20                   1                 0.1270206
        21                   1                 0.1097404
        22                   1                 0.1096864
        23                   1                 0.0967055
        24                   1                 0.0967009
        25                   6                 0.1202704
        26                   6                 0.1202481
        27                   1                 0.1190429
        28                   1                 0.1190318
        29                   6                -0.0337348
        30                   6                -0.0337414
        31                   1                 0.1382810
        32                   1                 0.1383007
        33                   1                 0.1286949
        34                   1                 0.1287663
        35                   1                 0.1317469
        36                   1                 0.1317114
        37                   6                 0.0656430
        38                   6                 0.0656116
        39                   7                -0.2411065
        40                   7                -0.2411099
        41                   1                 0.2097198
        42                   1                 0.2097325
--------------------------------------------------------------------------------

  Peak dynamic memory used =       3.40 MB 


  Timing analysis for GULP :

--------------------------------------------------------------------------------
  Task / Subroutine                                          Time (Seconds)
--------------------------------------------------------------------------------
  Calculation of reciprocal space energy and derivatives          0.2129
  Calculation of real space energy and derivatives                0.3760
  Generation of GFNFF parameters                                  0.0039
  Calculation of GFNFF energy and derivatives                     3.4784
  Calculation and manipulation of Hessian matrix                  0.0011
  Calculation of matrix inversion                                 0.0008
  Electronegativity equalisation                                  0.2852
  Calculation of variable charge 2nd derivatives                  0.0297
--------------------------------------------------------------------------------
  Total CPU time                                                  4.0800
--------------------------------------------------------------------------------


  CIF file written as out1.cif


  Job Finished at 14:03.30 11th February   2026                               

