********************************************************************************
*                       GENERAL UTILITY LATTICE PROGRAM                        *
*                                 Julian Gale                                  *
*                       Curtin Institute for Computation                       *
*                    School of Molecular and Life Sciences                     *
*                    Curtin University, Western Australia                      *
********************************************************************************
* Version = 6.4.0 * Last modified =  22nd December 2025                        *
********************************************************************************
*  optimise     - perform optimisation run                                     *
*  conp         - constant pressure calculation                                *
*  qok          - running with non charge neutral cell is OK                   *
*  c6           - use real and reciprocal space sum for C6 terms               *
*  gfnff        - use the GFNFF of Spicher and Grimme                          *
*  gwolf        - apply a Wolf sum to the topological charges in GFNFF         *
*  property     - calculate properties for final geometry                      *
*  nomodcoord   - do not mod input coordinates                                 *
********************************************************************************
* ASE calculation                                                              *
********************************************************************************


  Job Started  at 19:39.54 12th February   2026                               

  Number of CPUs =     1

  Host name      = fedora                                  


  Total number of configurations input =      1

********************************************************************************
*  Input for Configuration =   1                                               *
********************************************************************************

  Formula = C14N8O4H16

  Number of irreducible atoms/shells =      42


  Total number atoms/shells =      42

  Dimensionality = 3               :  Bulk   



  Cartesian lattice vectors (Angstroms) :

        3.874400    0.000000    0.000000
        0.000000   12.889800    0.000000
       -1.264834    0.000000    8.017544

  Cell parameters (Angstroms/Degrees):

  a =       3.8744    alpha =  90.0000
  b =      12.8898    beta  =  98.9650
  c =       8.1167    gamma =  90.0000

  Initial cell volume =         400.398085 Angs**3

  Temperature of configuration =   0.00     K 

  Pressure of configuration =         0.000 GPa 

  Fractional coordinates of asymmetric unit :

--------------------------------------------------------------------------------
   No.  Atomic       x           y          z         Charge      Occupancy
        Label      (Frac)      (Frac)     (Frac)        (e)         (Frac)  
--------------------------------------------------------------------------------
      1 C     c    0.508200    0.779100    0.667100     0.00000    1.000000    
      2 C     c    0.008200 *  0.220900 *  0.167100 *   0.00000    1.000000    
      3 C     c    0.342500 *  0.847000 *  0.924300 *   0.00000    1.000000    
      4 C     c    0.842500 *  0.153000 *  0.424300 *   0.00000    1.000000    
      5 N     c    0.407600 *  0.683300 *  0.726300 *   0.00000    1.000000    
      6 N     c    0.907600 *  0.316700 *  0.226300 *   0.00000    1.000000    
      7 C     c    0.288000 *  0.665400 *  0.877500 *   0.00000    1.000000    
      8 C     c    0.788000 *  0.334600 *  0.377500 *   0.00000    1.000000    
      9 N     c    0.255700 *  0.751000 *  0.976800 *   0.00000    1.000000    
     10 N     c    0.755700 *  0.249000 *  0.476800 *   0.00000    1.000000    
     11 O     c    0.214500 *  0.578600 *  0.917500 *   0.00000    1.000000    
     12 O     c    0.714500 *  0.421400 *  0.417500 *   0.00000    1.000000    
     13 O     c    0.609900 *  0.787200 *  0.531100 *   0.00000    1.000000    
     14 O     c    0.109900 *  0.212800 *  0.031100 *   0.00000    1.000000    
     15 N     c    0.326000 *  0.937700 *  0.007500 *   0.00000    1.000000    
     16 N     c    0.826000 *  0.062300 *  0.507500 *   0.00000    1.000000    
     17 C     c    0.148000 *  0.736100 *  0.140700 *   0.00000    1.000000    
     18 C     c    0.648000 *  0.263900 *  0.640700 *   0.00000    1.000000    
     19 H     c    0.348600 *  0.742500 *  0.226200 *   0.00000    1.000000    
     20 H     c    0.848600 *  0.257500 *  0.726200 *   0.00000    1.000000    
     21 H     c    0.048000 *  0.668300 *  0.145900 *   0.00000    1.000000    
     22 H     c    0.548000 *  0.331700 *  0.645900 *   0.00000    1.000000    
     23 H     c    0.978700 *  0.787700 *  0.157200 *   0.00000    1.000000    
     24 H     c    0.478700 *  0.212300 *  0.657200 *   0.00000    1.000000    
     25 C     c    0.440900 *  0.006900 *  0.907400 *   0.00000    1.000000    
     26 C     c    0.940900 *  0.993100 *  0.407400 *   0.00000    1.000000    
     27 H     c    0.458500 *  0.077400 *  0.931800 *   0.00000    1.000000    
     28 H     c    0.958500 *  0.922600 *  0.431800 *   0.00000    1.000000    
     29 C     c    0.433000 *  0.590900 *  0.619800 *   0.00000    1.000000    
     30 C     c    0.933000 *  0.409100 *  0.119800 *   0.00000    1.000000    
     31 H     c    0.206600 *  0.559900 *  0.591100 *   0.00000    1.000000    
     32 H     c    0.706600 *  0.440100 *  0.091100 *   0.00000    1.000000    
     33 H     c    0.591000 *  0.541500 *  0.679600 *   0.00000    1.000000    
     34 H     c    0.091000 *  0.458500 *  0.179600 *   0.00000    1.000000    
     35 H     c    0.518900 *  0.611400 *  0.519900 *   0.00000    1.000000    
     36 H     c    0.018900 *  0.388600 *  0.019900 *   0.00000    1.000000    
     37 C     c    0.465300 *  0.860800 *  0.778900 *   0.00000    1.000000    
     38 C     c    0.965300 *  0.139200 *  0.278900 *   0.00000    1.000000    
     39 N     c    0.527900 *  0.966300 *  0.769700 *   0.00000    1.000000    
     40 N     c    0.027900 *  0.033700 *  0.269700 *   0.00000    1.000000    
     41 H     c    0.607000 *  0.998700 *  0.690900 *   0.00000    1.000000    
     42 H     c    0.107000 *  0.001300 *  0.190900 *   0.00000    1.000000    
--------------------------------------------------------------------------------



********************************************************************************
*  General input information                                                   *
********************************************************************************

  Species output for all configurations : 

--------------------------------------------------------------------------------
  Species    Type    Atomic    Atomic    Charge       Radii (Angs)     Library
                     Number     Mass       (e)     Cova   Ionic  VDW   Symbol
--------------------------------------------------------------------------------
    C        Core        6      12.01   0.000000   0.770  0.000  1.530          
    N        Core        7      14.01   0.000000   0.750  0.000  1.480          
    O        Core        8      16.00   0.000000   0.730  0.000  1.360          
    H        Core        1       1.01   0.000000   0.370  0.000  1.080          
--------------------------------------------------------------------------------


  Lattice summation method               =    Ewald          (3-D)
                                         =    Parry          (2-D)
                                         =    Saunders et al (1-D)
  Accuracy factor for lattice sums       =   12.000


  Analytic derivatives to be used

  Time limit = Infinity

  Maximum range for interatomic potentials =    100000.000000 Angstroms

  C6 terms to be calculated in real and reciprocal space 

  pGFNFF forcefield to be used

  pGFNFF parameter charges will use new PBC-consistent topology 
  pGFNFF maximum number of shells for topology - loop 0   =    2
  pGFNFF maximum number of shells for topology - loop > 0 =    4
  pGFNFF fragments to be set based on original neighbour list
  pGFNFF topological large distance = 10**12 
  pGFNFF topological distances scaled by =  1.17500
  pGFNFF topological distance  cutoff    = 12.00000 a.u.
  pGFNFF topological charges to be computed with a Wolf sum with eta =  0.20000
  pGFNFF minimum allowed charge in topology set =      -2.0000
  pGFNFF dispersion-coordination number tolerance =    10.0000
  pGFNFF high coordination numbers will NOT be trapped
  pGFNFF pi biradicals modified based on charge of atoms
  pGFNFF accuracy       =     0.100000
  pGFNFF accuracy_disp  =     0.100000
  pGFNFF accuracy_rep   =     0.100000
  pGFNFF accuracy_cn    =     0.100000
  pGFNFF accuracy_hb1   =     0.100000
  pGFNFF accuracy_hb2   =     0.100000
  pGFNFF taper          =     0.950000
  pGFNFF scale coulomb  =     0.725850
  pGFNFF scale repulsn  =     1.258491
  pGFNFF scale HB       =     0.804092
  pGFNFF scale C6       =     0.806201
  pGFNFF scale C8       =     1.209292
  pGFNFF temperature 1  =  4000.000000 K
  pGFNFF temperature 2  =   300.000000 K
  pGFNFF kspace         =     0.040000 1/Ang
  pGFNFF ATM dispersion =   damped 

********************************************************************************
*  Output for configuration   1                                                *
********************************************************************************


  Components of energy : 

--------------------------------------------------------------------------------
  Interatomic potentials     =           0.00000000 eV    
  GFNFF force field          =        -205.10505162 eV    
  Monopole - monopole (real) =          -7.50536638 eV    
  Monopole - monopole (recip)=          -4.69425957 eV    
  Monopole - monopole (total)=         -12.19962594 eV    
  Dispersion (real+recip)    =           0.00000000 eV    
  GFNFF Coulomb correction   =           0.46833557 eV    
--------------------------------------------------------------------------------
  Total lattice energy       =        -216.83634199 eV    
--------------------------------------------------------------------------------
  Total lattice energy       =          -20921.3924 kJ/(mole unit cells)
--------------------------------------------------------------------------------


  Number of variables =      129

  Maximum number of calculations  =            20
  Maximum Hessian update interval =            10
  Maximum step size               =   1.000000000
  Maximum parameter tolerance     =   0.000010000
  Maximum function  tolerance     =   0.000010000
  Maximum gradient  tolerance     =   0.001000000
  Maximum gradient  component     =   0.010000000

  Symmetry not applied to optimisation

  Cell parameters to be optimised using strains

  Newton-Raphson optimiser to be used

  BFGS hessian update to be used

  Hessian eigenvalue shifts to be used to ensure all values are positive

  Lower half triangular hessian to be used

  Start of bulk optimisation :

  Cycle:      0 Energy:      -216.836342  Gnorm:      3.328417  CPU:    0.204
  ** Hessian lowest eigenvalue is negative =  -1.192E+03
  ** Hessian calculated **
  Cycle:      1 Energy:      -224.772635  Gnorm:      0.626302  CPU:    0.458
  Cycle:      2 Energy:      -225.602166  Gnorm:      0.409741  CPU:    0.650
  Cycle:      3 Energy:      -225.968429  Gnorm:      0.209563  CPU:    0.792
  Cycle:      4 Energy:      -226.031340  Gnorm:      0.183001  CPU:    0.930
  Cycle:      5 Energy:      -226.150505  Gnorm:      0.109795  CPU:    1.101
  Cycle:      6 Energy:      -226.204546  Gnorm:      0.087704  CPU:    1.239
  Cycle:      7 Energy:      -226.243293  Gnorm:      0.083258  CPU:    1.412
  Cycle:      8 Energy:      -226.277120  Gnorm:      0.069973  CPU:    1.585
  Cycle:      9 Energy:      -226.335109  Gnorm:      0.088325  CPU:    1.798
  Cycle:     10 Energy:      -226.387248  Gnorm:      0.102758  CPU:    1.982
  ** Hessian lowest eigenvalue is negative =  -9.254E-01
  ** Hessian calculated **
  Cycle:     11 Energy:      -226.513700  Gnorm:      0.080621  CPU:    2.443
  Cycle:     12 Energy:      -226.539314  Gnorm:      0.084655  CPU:    2.633
  Cycle:     13 Energy:      -226.615373  Gnorm:      0.065603  CPU:    2.825
  Cycle:     14 Energy:      -226.637202  Gnorm:      0.034654  CPU:    2.983
  Cycle:     15 Energy:      -226.643174  Gnorm:      0.033047  CPU:    3.140
  Cycle:     16 Energy:      -226.646500  Gnorm:      0.022285  CPU:    3.297
  Cycle:     17 Energy:      -226.648575  Gnorm:      0.013134  CPU:    3.491
  Cycle:     18 Energy:      -226.649764  Gnorm:      0.015741  CPU:    3.647
  Cycle:     19 Energy:      -226.650426  Gnorm:      0.011515  CPU:    3.804
  Cycle:     20 Energy:      -226.650871  Gnorm:      0.008347  CPU:    3.961


  **** Maximum number of function calls has been reached ****


  Final energy =    -226.65087118 eV      
  Final Gnorm  =       0.00834729

  Components of energy : 

--------------------------------------------------------------------------------
  Interatomic potentials     =           0.00000000 eV    
  GFNFF force field          =        -216.60471386 eV    
  Monopole - monopole (real) =          -5.85836264 eV    
  Monopole - monopole (recip)=          -4.38248556 eV    
  Monopole - monopole (total)=         -10.24084821 eV    
  Dispersion (real+recip)    =           0.00000000 eV    
  GFNFF Coulomb correction   =           0.19469088 eV    
--------------------------------------------------------------------------------
  Total lattice energy       =        -226.65087118 eV    
--------------------------------------------------------------------------------
  Total lattice energy       =          -21868.3444 kJ/(mole unit cells)
--------------------------------------------------------------------------------

  Final fractional coordinates of atoms :

--------------------------------------------------------------------------------
   No.  Atomic        x           y          z          Radius
        Label       (Frac)      (Frac)     (Frac)       (Angs) 
--------------------------------------------------------------------------------
     1  C     c     0.508200    0.779100    0.667100    0.000000
     2  C     c     0.004666    0.236640    0.165860    0.000000
     3  C     c     0.340260    0.852768    0.922577    0.000000
     4  C     c     0.838243    0.163013    0.421754    0.000000
     5  N     c     0.458519    0.678586    0.732952    0.000000
     6  N     c     0.955529    0.337170    0.231766    0.000000
     7  C     c     0.359699    0.662362    0.889721    0.000000
     8  C     c     0.857306    0.353404    0.388666    0.000000
     9  N     c     0.300217    0.750284    0.985069    0.000000
    10  N     c     0.797442    0.265505    0.483956    0.000000
    11  O     c     0.326998    0.572151    0.941606    0.000000
    12  O     c     0.825507    0.443603    0.440816    0.000000
    13  O     c     0.598141    0.790873    0.531238    0.000000
    14  O     c     0.093560    0.224822    0.029709    0.000000
    15  N     c     0.291461    0.947685   -0.009970    0.000000
    16  N     c     0.792749    0.068110    0.490327    0.000000
    17  C     c     0.206861    0.739235    0.149072    0.000000
    18  C     c     0.704145    0.276591    0.647996    0.000000
    19  H     c     0.459994    0.748127    0.267816    0.000000
    20  H     c     0.957459    0.267934    0.766616    0.000000
    21  H     c     0.081934    0.661908    0.152085    0.000000
    22  H     c     0.579095    0.353817    0.651033    0.000000
    23  H     c     1.007933    0.800328    0.153833    0.000000
    24  H     c     0.505303    0.215352    0.652859    0.000000
    25  C     c     0.370227    0.020747    0.888988    0.000000
    26  C     c     0.872823    0.995025    0.389751    0.000000
    27  H     c     0.351444    0.104613    0.911491    0.000000
    28  H     c     0.857202    0.911110    0.413331    0.000000
    29  C     c     0.507258    0.586027    0.634226    0.000000
    30  C     c     1.004201    0.429664    0.132979    0.000000
    31  H     c     0.239011    0.545157    0.577868    0.000000
    32  H     c     0.736382    0.470629    0.077332    0.000000
    33  H     c     0.711930    0.533191    0.726643    0.000000
    34  H     c     0.210331    0.482384    0.225165    0.000000
    35  H     c     0.608461    0.608389    0.524385    0.000000
    36  H     c     0.103644    0.407205    0.022632    0.000000
    37  C     c     0.446306    0.867285    0.771128    0.000000
    38  C     c     0.943820    0.148456    0.270196    0.000000
    39  N     c     0.469281    0.974973    0.753848    0.000000
    40  N     c    -0.030556    0.040774    0.253853    0.000000
    41  H     c     0.574074    1.010351    0.661502    0.000000
    42  H     c     0.074196    0.005396    0.161539    0.000000
--------------------------------------------------------------------------------

  Final Cartesian lattice vectors (Angstroms) :

        3.806498   -0.001233   -0.358945
       -0.007224   12.769073   -0.001873
       -1.977141   -0.000645    7.640232


  Final cell parameters and derivatives :

--------------------------------------------------------------------------------
       a            3.823384 Angstrom     dE/de1(xx)     0.031293 eV/strain
       b           12.769075 Angstrom     dE/de2(yy)     0.187940 eV/strain
       c            7.891909 Angstrom     dE/de3(zz)     0.083243 eV/strain
       alpha       90.004700 Degrees      dE/de4(yz)     0.034522 eV/strain
       beta       109.895675 Degrees      dE/de5(xz)     0.011873 eV/strain
       gamma       90.049955 Degrees      dE/de6(xy)     0.009781 eV/strain
--------------------------------------------------------------------------------

  Primitive cell volume =           362.294812 Angs**3

  Density of cell =      1.651789 g/cm**3

  Non-primitive cell volume =           362.294812 Angs**3


  Final internal derivatives :

--------------------------------------------------------------------------------
   No.  Atomic          a             b             c           Radius
        Label          (eV)          (eV)          (eV)        (eV/Angs)
--------------------------------------------------------------------------------
      1 C     c       0.000000      0.000000      0.000000      0.000000
      2 C     c       0.016386     -0.216086     -0.077757      0.000000
      3 C     c       0.003444      0.162229      0.069147      0.000000
      4 C     c       0.011981     -0.071754     -0.013651      0.000000
      5 N     c      -0.005287      0.015943      0.017347      0.000000
      6 N     c       0.009287      0.144524     -0.000962      0.000000
      7 C     c      -0.003707      0.009076      0.013354      0.000000
      8 C     c       0.006487     -0.096017     -0.036817      0.000000
      9 N     c      -0.004169     -0.043838      0.043061      0.000000
     10 N     c       0.008457      0.099292      0.001715      0.000000
     11 O     c      -0.026486     -0.227106      0.023044      0.000000
     12 O     c      -0.039423      0.140232      0.039124      0.000000
     13 O     c      -0.019572     -0.033505      0.038216      0.000000
     14 O     c      -0.025869      0.010682      0.032223      0.000000
     15 N     c      -0.028320      0.138702     -0.002509      0.000000
     16 N     c      -0.026364     -0.118376      0.075477      0.000000
     17 C     c      -0.069400      0.400360     -0.043540      0.000000
     18 C     c      -0.050869     -0.205608      0.021546      0.000000
     19 H     c       0.041763      0.045445      0.115771      0.000000
     20 H     c       0.038508     -0.001862      0.058115      0.000000
     21 H     c      -0.019075     -0.138240     -0.011423      0.000000
     22 H     c      -0.014790      0.061380      0.012057      0.000000
     23 H     c       0.065504     -0.194246     -0.037874      0.000000
     24 H     c       0.026625      0.094636     -0.024764      0.000000
     25 C     c      -0.051956      0.321002      0.137383      0.000000
     26 C     c      -0.009593     -0.125751      0.051520      0.000000
     27 H     c       0.000826     -0.299406     -0.047099      0.000000
     28 H     c      -0.001075     -0.030842      0.005582      0.000000
     29 C     c       0.042106     -0.039361     -0.206112      0.000000
     30 C     c      -0.012885      0.011122     -0.194081      0.000000
     31 H     c      -0.015537     -0.016642      0.022422      0.000000
     32 H     c       0.005214     -0.018550      0.008922      0.000000
     33 H     c       0.029436     -0.114429      0.027658      0.000000
     34 H     c       0.040190      0.118486      0.042453      0.000000
     35 H     c      -0.020959     -0.012944      0.082222      0.000000
     36 H     c      -0.032497     -0.005692      0.097696      0.000000
     37 C     c       0.000957      0.153742     -0.030565      0.000000
     38 C     c       0.010577     -0.074720     -0.076689      0.000000
     39 N     c       0.063618     -0.219368     -0.140154      0.000000
     40 N     c       0.058689      0.162175     -0.131672      0.000000
     41 H     c      -0.016159     -0.041483      0.084416      0.000000
     42 H     c      -0.019358      0.006161      0.101939      0.000000
--------------------------------------------------------------------------------
  Maximum abs         0.069400      0.400360      0.206112      0.000000
--------------------------------------------------------------------------------


  Born effective charge tensors : 

-------------------------------------------------------------------------------
  Atom             x           y             z
-------------------------------------------------------------------------------
    1 C     x       0.2660      0.0000      0.0000
            y       0.0000      0.2660      0.0000
            z       0.0000      0.0000      0.2660
-------------------------------------------------------------------------------
    2 C     x       0.2660      0.0000      0.0000
            y       0.0000      0.2660      0.0000
            z       0.0000      0.0000      0.2660
-------------------------------------------------------------------------------
    3 C     x       0.1483      0.0000      0.0000
            y       0.0000      0.1483      0.0000
            z       0.0000      0.0000      0.1483
-------------------------------------------------------------------------------
    4 C     x       0.1483      0.0000      0.0000
            y       0.0000      0.1483      0.0000
            z       0.0000      0.0000      0.1483
-------------------------------------------------------------------------------
    5 N     x      -0.1927      0.0000      0.0000
            y       0.0000     -0.1927      0.0000
            z       0.0000      0.0000     -0.1927
-------------------------------------------------------------------------------
    6 N     x      -0.1929      0.0000      0.0000
            y       0.0000     -0.1929      0.0000
            z       0.0000      0.0000     -0.1929
-------------------------------------------------------------------------------
    7 C     x       0.3157      0.0000      0.0000
            y       0.0000      0.3157      0.0000
            z       0.0000      0.0000      0.3157
-------------------------------------------------------------------------------
    8 C     x       0.3157      0.0000      0.0000
            y       0.0000      0.3157      0.0000
            z       0.0000      0.0000      0.3157
-------------------------------------------------------------------------------
    9 N     x      -0.2060      0.0000      0.0000
            y       0.0000     -0.2060      0.0000
            z       0.0000      0.0000     -0.2060
-------------------------------------------------------------------------------
   10 N     x      -0.2060      0.0000      0.0000
            y       0.0000     -0.2060      0.0000
            z       0.0000      0.0000     -0.2060
-------------------------------------------------------------------------------
   11 O     x      -0.5100      0.0000      0.0000
            y       0.0000     -0.5100      0.0000
            z       0.0000      0.0000     -0.5100
-------------------------------------------------------------------------------
   12 O     x      -0.5096      0.0000      0.0000
            y       0.0000     -0.5096      0.0000
            z       0.0000      0.0000     -0.5096
-------------------------------------------------------------------------------
   13 O     x      -0.4932      0.0000      0.0000
            y       0.0000     -0.4932      0.0000
            z       0.0000      0.0000     -0.4932
-------------------------------------------------------------------------------
   14 O     x      -0.4933      0.0000      0.0000
            y       0.0000     -0.4933      0.0000
            z       0.0000      0.0000     -0.4933
-------------------------------------------------------------------------------
   15 N     x      -0.2859      0.0000      0.0000
            y       0.0000     -0.2859      0.0000
            z       0.0000      0.0000     -0.2859
-------------------------------------------------------------------------------
   16 N     x      -0.2861      0.0000      0.0000
            y       0.0000     -0.2861      0.0000
            z       0.0000      0.0000     -0.2861
-------------------------------------------------------------------------------
   17 C     x      -0.0367      0.0000      0.0000
            y       0.0000     -0.0367      0.0000
            z       0.0000      0.0000     -0.0367
-------------------------------------------------------------------------------
   18 C     x      -0.0366      0.0000      0.0000
            y       0.0000     -0.0366      0.0000
            z       0.0000      0.0000     -0.0366
-------------------------------------------------------------------------------
   19 H     x       0.1308      0.0000      0.0000
            y       0.0000      0.1308      0.0000
            z       0.0000      0.0000      0.1308
-------------------------------------------------------------------------------
   20 H     x       0.1308      0.0000      0.0000
            y       0.0000      0.1308      0.0000
            z       0.0000      0.0000      0.1308
-------------------------------------------------------------------------------
   21 H     x       0.1098      0.0000      0.0000
            y       0.0000      0.1098      0.0000
            z       0.0000      0.0000      0.1098
-------------------------------------------------------------------------------
   22 H     x       0.1096      0.0000      0.0000
            y       0.0000      0.1096      0.0000
            z       0.0000      0.0000      0.1096
-------------------------------------------------------------------------------
   23 H     x       0.0991      0.0000      0.0000
            y       0.0000      0.0991      0.0000
            z       0.0000      0.0000      0.0991
-------------------------------------------------------------------------------
   24 H     x       0.0992      0.0000      0.0000
            y       0.0000      0.0992      0.0000
            z       0.0000      0.0000      0.0992
-------------------------------------------------------------------------------
   25 C     x       0.1262      0.0000      0.0000
            y       0.0000      0.1262      0.0000
            z       0.0000      0.0000      0.1262
-------------------------------------------------------------------------------
   26 C     x       0.1261      0.0000      0.0000
            y       0.0000      0.1261      0.0000
            z       0.0000      0.0000      0.1261
-------------------------------------------------------------------------------
   27 H     x       0.1213      0.0000      0.0000
            y       0.0000      0.1213      0.0000
            z       0.0000      0.0000      0.1213
-------------------------------------------------------------------------------
   28 H     x       0.1212      0.0000      0.0000
            y       0.0000      0.1212      0.0000
            z       0.0000      0.0000      0.1212
-------------------------------------------------------------------------------
   29 C     x      -0.0373      0.0000      0.0000
            y       0.0000     -0.0373      0.0000
            z       0.0000      0.0000     -0.0373
-------------------------------------------------------------------------------
   30 C     x      -0.0374      0.0000      0.0000
            y       0.0000     -0.0374      0.0000
            z       0.0000      0.0000     -0.0374
-------------------------------------------------------------------------------
   31 H     x       0.1441      0.0000      0.0000
            y       0.0000      0.1441      0.0000
            z       0.0000      0.0000      0.1441
-------------------------------------------------------------------------------
   32 H     x       0.1448      0.0000      0.0000
            y       0.0000      0.1448      0.0000
            z       0.0000      0.0000      0.1448
-------------------------------------------------------------------------------
   33 H     x       0.1330      0.0000      0.0000
            y       0.0000      0.1330      0.0000
            z       0.0000      0.0000      0.1330
-------------------------------------------------------------------------------
   34 H     x       0.1333      0.0000      0.0000
            y       0.0000      0.1333      0.0000
            z       0.0000      0.0000      0.1333
-------------------------------------------------------------------------------
   35 H     x       0.1343      0.0000      0.0000
            y       0.0000      0.1343      0.0000
            z       0.0000      0.0000      0.1343
-------------------------------------------------------------------------------
   36 H     x       0.1339      0.0000      0.0000
            y       0.0000      0.1339      0.0000
            z       0.0000      0.0000      0.1339
-------------------------------------------------------------------------------
   37 C     x       0.0657      0.0000      0.0000
            y       0.0000      0.0657      0.0000
            z       0.0000      0.0000      0.0657
-------------------------------------------------------------------------------
   38 C     x       0.0656      0.0000      0.0000
            y       0.0000      0.0656      0.0000
            z       0.0000      0.0000      0.0656
-------------------------------------------------------------------------------
   39 N     x      -0.2498      0.0000      0.0000
            y       0.0000     -0.2498      0.0000
            z       0.0000      0.0000     -0.2498
-------------------------------------------------------------------------------
   40 N     x      -0.2499      0.0000      0.0000
            y       0.0000     -0.2499      0.0000
            z       0.0000      0.0000     -0.2499
-------------------------------------------------------------------------------
   41 H     x       0.2173      0.0000      0.0000
            y       0.0000      0.2173      0.0000
            z       0.0000      0.0000      0.2173
-------------------------------------------------------------------------------
   42 H     x       0.2173      0.0000      0.0000
            y       0.0000      0.2173      0.0000
            z       0.0000      0.0000      0.2173
-------------------------------------------------------------------------------




  Elastic Constant Matrix: (Units=GPa)

-------------------------------------------------------------------------------
  Indices      1         2         3         4         5         6    
-------------------------------------------------------------------------------
       1     15.7435   10.2567   14.0980   -0.0007   -2.2718   -0.0260
       2     10.2567   36.2575   16.9487   -0.0647   -7.5146   -0.0096
       3     14.0980   16.9487   32.9654   -0.0232   -8.2944   -0.0007
       4     -0.0007   -0.0647   -0.0232   13.9512   -0.0022   -7.2693
       5     -2.2718   -7.5146   -8.2944   -0.0022    7.9151    0.0141
       6     -0.0260   -0.0096   -0.0007   -7.2693    0.0141    5.4651
-------------------------------------------------------------------------------


  Elastic Compliance Matrix: (Units=1/GPa)

-------------------------------------------------------------------------------
  Indices      1         2         3         4         5         6    
-------------------------------------------------------------------------------
       1    0.112394 -0.016246 -0.048182  0.000492 -0.033657  0.001243
       2   -0.016246  0.041213 -0.007564  0.000465  0.026538  0.000544
       3   -0.048182 -0.007564  0.067283 -0.000346  0.049498 -0.000822
       4    0.000492  0.000465 -0.000346  0.233534 -0.000269  0.310633
       5   -0.033657  0.026538  0.049498 -0.000269  0.193746 -0.000965
       6    0.001243  0.000544 -0.000822  0.310633 -0.000965  0.596167
-------------------------------------------------------------------------------

  Mechanical properties :

-------------------------------------------------------------------------------
  Convention :                    Reuss         Voigt         Hill
-------------------------------------------------------------------------------
  Bulk  Modulus (GPa)     =      13.00287      18.61923      15.81105
  Shear Modulus (GPa)     =       3.53618       8.37716       5.95667
-------------------------------------------------------------------------------
  Velocity S-wave (km/s)  =       1.46315       2.25201       1.89900
  Velocity P-wave (km/s)  =       3.27512       4.24668       3.79214
-------------------------------------------------------------------------------
  Compressibility (1/GPa) =    0.07690612
-------------------------------------------------------------------------------
  Stress axis :                     x             y             z
-------------------------------------------------------------------------------
  Youngs Moduli (GPa)     =       8.89731      24.26405      14.86264
-------------------------------------------------------------------------------
  Poissons Ratio (x)      =                     0.39420       0.71611
  Poissons Ratio (y)      =       0.14455                     0.11242
  Poissons Ratio (z)      =       0.42869       0.18353
-------------------------------------------------------------------------------


  Piezoelectric Strain Matrix: (Units=C/m**2)

-------------------------------------------------------------------------------
  Indices      1         2         3         4         5         6    
-------------------------------------------------------------------------------
       x    -0.28168  -1.07198   0.92691   0.00277  -0.67682   0.00625
       y     0.00005  -0.00430   0.00075  -0.23531   0.00042   0.10365
       z    -0.36815  -0.60729  -0.14680   0.00112   0.02098   0.00443
-------------------------------------------------------------------------------


  Piezoelectric Stress Matrix: (Units=10**-11 C/N)

-------------------------------------------------------------------------------
  Indices      1         2         3         4         5         6    
-------------------------------------------------------------------------------
       x    -3.61144  -6.45711   5.05382   0.18133 -10.42250   0.35461
       y     0.00377  -0.02255   0.00981  -2.27579  -0.00329  -1.13049
       z    -2.51381  -1.73774   1.34886   0.12208  -0.69314   0.23046
-------------------------------------------------------------------------------


  Static dielectric constant tensor : 

-------------------------------------------------------------------------------
              x         y         z
-------------------------------------------------------------------------------
       x     1.51869   0.00039   0.22203
       y     0.00039   1.13943   0.00012
       z     0.22203   0.00012   1.24312
--------------------------------------------------------------------------------

  Static refractive indices : 

-------------------------------------------------------------------------------
    1 =    1.05811      2 =    1.06744      3 =    1.28149
-------------------------------------------------------------------------------


  Time to end of optimisation =       4.3364 seconds



  Final charges from pGFNFF :

--------------------------------------------------------------------------------
    Atom no.            Atomic No.             Charge
--------------------------------------------------------------------------------
         1                   6                 0.2660086
         2                   6                 0.2659760
         3                   6                 0.1483249
         4                   6                 0.1482551
         5                   7                -0.1927251
         6                   7                -0.1928635
         7                   6                 0.3157200
         8                   6                 0.3157207
         9                   7                -0.2060085
        10                   7                -0.2059875
        11                   8                -0.5100073
        12                   8                -0.5096426
        13                   8                -0.4932464
        14                   8                -0.4932924
        15                   7                -0.2858713
        16                   7                -0.2860638
        17                   6                -0.0366642
        18                   6                -0.0366335
        19                   1                 0.1308303
        20                   1                 0.1307996
        21                   1                 0.1098319
        22                   1                 0.1096457
        23                   1                 0.0990500
        24                   1                 0.0991879
        25                   6                 0.1262101
        26                   6                 0.1260945
        27                   1                 0.1212990
        28                   1                 0.1211647
        29                   6                -0.0373022
        30                   6                -0.0374375
        31                   1                 0.1441251
        32                   1                 0.1448153
        33                   1                 0.1329891
        34                   1                 0.1333446
        35                   1                 0.1342864
        36                   1                 0.1339144
        37                   6                 0.0656794
        38                   6                 0.0655716
        39                   7                -0.2498042
        40                   7                -0.2499038
        41                   1                 0.2172746
        42                   1                 0.2173343
--------------------------------------------------------------------------------

  Peak dynamic memory used =       3.46 MB 


  Timing analysis for GULP :

--------------------------------------------------------------------------------
  Task / Subroutine                                          Time (Seconds)
--------------------------------------------------------------------------------
  Calculation of reciprocal space energy and derivatives          0.2009
  Calculation of real space energy and derivatives                0.3860
  Generation of GFNFF parameters                                  0.0055
  Calculation of GFNFF energy and derivatives                     3.7346
  Calculation and manipulation of Hessian matrix                  0.0008
  Calculation of matrix inversion                                 0.0005
  Electronegativity equalisation                                  0.2752
  Calculation of variable charge 2nd derivatives                  0.0236
--------------------------------------------------------------------------------
  Total CPU time                                                  4.3364
--------------------------------------------------------------------------------


  CIF file written as out1.cif


  Job Finished at 19:39.58 12th February   2026                               

